# Force coefficients
# liftDir    : (-2.397330e-01 9.708390e-01 0.000000e+00)
# dragDir    : (9.708390e-01 2.397330e-01 0.000000e+00)
# pitchAxis  : (0.000000e+00 0.000000e+00 1.000000e+00)
# magUInf    : 6.180220e+02
# lRef       : 1.000000e+00
# Aref       : 1.000000e+00
# CofR       : (0.000000e+00 0.000000e+00 0.000000e+00)
# Time       	Cm           	Cd           	Cl           	Cl(f)        	Cl(r)        	Cm	Cd	Cl	Cl(f)	Cl(r)
4.000000e-08	5.450349e+02	5.204779e+03	3.617560e+02	7.259129e+02	-3.641569e+02
8.000000e-08	-1.339236e+03	-6.103390e+04	-5.323929e+04	-2.795888e+04	-2.528041e+04
